<?xml version="1.0"?>
<VTKFile type="UnstructuredGrid" version="0.1" byte_order="LittleEndian">
  <UnstructuredGrid>
    <Piece NumberOfPoints="75" NumberOfCells="192">
      <PointData>
        <DataArray type="Float64" Name="displacement" NumberOfComponents="3" format="ascii">0.1157501856519546 0.1157501856519545 0.03626319292772377 0.06920752180406636 0.1789164931081988 0.04692708393184191 0.03881648263608582 0.1743373672784373 0.05954480840412329 -0.03909162451875757 0.130941833815426 0.06136618480110271 -0.1185077559502401 0.1300425920185562 0.08889673346243358 0.1789164931081987 0.06920752180406635 0.04692708393184189 0 0 0 0 0 0 0.0227926676366428 0.03819959024197975 0.05335712097485667 -0.06727133959343211 0.04879538980733233 0.09544704316382352 0.1743373672784373 0.03881648263608584 0.0595448084041233 0 0 0 0 0 0 0 0 0 -0.1057363498961029 -0.009796499654314103 0.1063174749420172 0.130941833815426 -0.03909162451875755 0.06136618480110272 0.03819959024197977 0.02279266763664284 0.05335712097485662 0 0 0 -0.008390947899987226 -0.008390947899987235 0.02335949579128185 -0.1161988773752737 -0.05182555925212629 0.1105945170671127 0.1300425920185562 -0.1185077559502402 0.08889673346243358 0.04879538980733241 -0.06727133959343214 0.09544704316382341 -0.009796499654314087 -0.1057363498961029 0.1063174749420172 -0.05182555925212625 -0.1161988773752737 0.1105945170671126 -0.09501229295228002 -0.09501229295228004 0.1110245946722121 0.1188412936877701 0.1188412936877701 -0.004761811843759556 0.07023944247466604 0.1598110329325122 -0.001060355310328105 0.02083319449514346 0.1472831396603662 -0.008973689522515477 -0.05148798799229579 0.1060294137529751 -0.01200784258248891 -0.1336780171177928 0.1336780171177928 -8.763513236838047e-18 0.1598110329325123 0.07023944247466603 -0.001060355310328094 0 0 0 0 0 0 -0.01093876186766049 0.01093876186766047 2.112330029443953e-17 -0.1060294137529751 0.05148798799229577 0.0120078425824889 0.1472831396603662 0.02083319449514349 -0.00897368952251547 0 0 0 0 0 0 0 0 0 -0.1472831396603662 -0.02083319449514347 0.008973689522515486 0.106029413752975 -0.05148798799229576 -0.01200784258248889 0.01093876186766045 -0.01093876186766048 -1.692207784743235e-18 0 0 0 0 0 0 -0.1598110329325122 -0.07023944247466601 0.001060355310328093 0.1336780171177928 -0.1336780171177928 -1.136002397097859e-17 0.05148798799229577 -0.1060294137529751 0.0120078425824889 -0.02083319449514346 -0.1472831396603662 0.008973689522515474 -0.07023944247466603 -0.1598110329325122 0.001060355310328115 -0.1188412936877702 -0.1188412936877701 0.004761811843759593 0.09501229295228 0.09501229295227996 -0.1110245946722121 0.05182555925212626 0.1161988773752736 -0.1105945170671126 0.009796499654314133 0.1057363498961029 -0.1063174749420172 -0.04879538980733234 0.06727133959343221 -0.09544704316382348 -0.1300425920185561 0.1185077559502401 -0.0888967334624336 0.1161988773752737 0.05182555925212627 -0.1105945170671127 0.008390947899987226 0.008390947899987245 -0.0233594957912819 0 0 0 -0.03819959024197978 -0.02279266763664282 -0.05335712097485664 -0.130941833815426 0.03909162451875753 -0.06136618480110264 0.1057363498961029 0.009796499654314113 -0.1063174749420172 0 0 0 0 0 0 0 0 0 -0.1743373672784374 -0.03881648263608582 -0.05954480840412334 0.06727133959343218 -0.04879538980733237 -0.09544704316382351 -0.02279266763664283 -0.03819959024197976 -0.05335712097485669 0 0 0 0 0 0 -0.1789164931081988 -0.06920752180406636 -0.04692708393184191 0.1185077559502402 -0.1300425920185561 -0.08889673346243354 0.03909162451875756 -0.1309418338154259 -0.0613661848011027 -0.03881648263608579 -0.1743373672784373 -0.05954480840412332 -0.06920752180406634 -0.1789164931081988 -0.04692708393184195 -0.1157501856519546 -0.1157501856519546 -0.03626319292772369</DataArray>
        <DataArray type="Float64" Name="displacement_magnitude" NumberOfComponents="1" format="ascii">0.1676640394307533 0.1974916296624812 0.1882706062073898 0.1497989572310344 0.197123801656617 0.197491629662481 0 0 0.06946723509234486 0.1265565535476578 0.1882706062073898 0 0 0 0.1502649412633383 0.1497989572310344 0.06946723509234484 0 0.02620080260113256 0.168579995552193 0.197123801656617 0.1265565535476577 0.1502649412633384 0.168579995552193 0.1743018423489228 0.1681344135589173 0.1745688113022844 0.1490197044847893 0.1184796934996889 0.1890492647991253 0.1745688113022844 0 0 0.0154697453888151 0.1184796934996889 0.1490197044847893 0 0 0 0.1490197044847892 0.1184796934996888 0.01546974538881508 0 0 0.1745688113022844 0.1890492647991253 0.1184796934996888 0.1490197044847892 0.1745688113022843 0.1681344135589173 0.1743018423489228 0.1685799955521929 0.1502649412633384 0.1265565535476578 0.197123801656617 0.168579995552193 0.02620080260113261 0 0.06946723509234486 0.1497989572310343 0.1502649412633383 0 0 0 0.1882706062073899 0.1265565535476578 0.06946723509234488 0 0 0.1974916296624811 0.197123801656617 0.1497989572310343 0.1882706062073898 0.1974916296624811 0.1676640394307534</DataArray>
      </PointData>
      <CellData>
        <DataArray type="Int64" Name="region" format="ascii">3 3 3 3 3 3 3 3 3 3 3 3 3 3 3 3 3 3 3 3 3 3 3 3 3 3 3 3 3 3 1 1 2 2 2 2 2 1 1 1 2 2 3 3 3 3 3 3 3 3 3 3 3 3 1 2 2 2 1 1 2 2 2 1 1 2 3 3 3 3 3 3 3 3 3 3 3 3 3 3 3 3 3 3 3 3 3 3 3 3 3 3 3 3 3 3 3 3 3 3 3 3 3 3 3 3 3 3 3 3 3 3 3 3 3 3 3 3 3 3 3 3 3 3 3 3 1 1 2 2 2 2 2 1 1 1 2 2 3 3 3 3 3 3 3 3 3 3 3 3 1 2 2 2 1 1 2 2 2 1 1 2 3 3 3 3 3 3 3 3 3 3 3 3 3 3 3 3 3 3 3 3 3 3 3 3 3 3 3 3 3 3</DataArray>
        <DataArray type="Float64" Name="growth_lambda" format="ascii">0.8434326653017492 0.8434326653017492 0.8434326653017492 0.8434326653017492 0.8434326653017492 0.8434326653017492 0.8434326653017492 0.8434326653017492 0.8434326653017492 0.8434326653017492 0.8434326653017492 0.8434326653017492 0.8434326653017492 0.8434326653017492 0.8434326653017492 0.8434326653017492 0.8434326653017492 0.8434326653017492 0.8434326653017492 0.8434326653017492 0.8434326653017492 0.8434326653017492 0.8434326653017492 0.8434326653017492 0.8434326653017492 0.8434326653017492 0.8434326653017492 0.8434326653017492 0.8434326653017492 0.8434326653017492 1 1 1 1 1 1 1 1 1 1 1 1 0.8434326653017492 0.8434326653017492 0.8434326653017492 0.8434326653017492 0.8434326653017492 0.8434326653017492 0.8434326653017492 0.8434326653017492 0.8434326653017492 0.8434326653017492 0.8434326653017492 0.8434326653017492 1 1 1 1 1 1 1 1 1 1 1 1 0.8434326653017492 0.8434326653017492 0.8434326653017492 0.8434326653017492 0.8434326653017492 0.8434326653017492 0.8434326653017492 0.8434326653017492 0.8434326653017492 0.8434326653017492 0.8434326653017492 0.8434326653017492 0.8434326653017492 0.8434326653017492 0.8434326653017492 0.8434326653017492 0.8434326653017492 0.8434326653017492 0.8434326653017492 0.8434326653017492 0.8434326653017492 0.8434326653017492 0.8434326653017492 0.8434326653017492 0.8434326653017492 0.8434326653017492 0.8434326653017492 0.8434326653017492 0.8434326653017492 0.8434326653017492 0.8434326653017492 0.8434326653017492 0.8434326653017492 0.8434326653017492 0.8434326653017492 0.8434326653017492 0.8434326653017492 0.8434326653017492 0.8434326653017492 0.8434326653017492 0.8434326653017492 0.8434326653017492 0.8434326653017492 0.8434326653017492 0.8434326653017492 0.8434326653017492 0.8434326653017492 0.8434326653017492 0.8434326653017492 0.8434326653017492 0.8434326653017492 0.8434326653017492 0.8434326653017492 0.8434326653017492 0.8434326653017492 0.8434326653017492 0.8434326653017492 0.8434326653017492 0.8434326653017492 0.8434326653017492 1 1 1 1 1 1 1 1 1 1 1 1 0.8434326653017492 0.8434326653017492 0.8434326653017492 0.8434326653017492 0.8434326653017492 0.8434326653017492 0.8434326653017492 0.8434326653017492 0.8434326653017492 0.8434326653017492 0.8434326653017492 0.8434326653017492 1 1 1 1 1 1 1 1 1 1 1 1 0.8434326653017492 0.8434326653017492 0.8434326653017492 0.8434326653017492 0.8434326653017492 0.8434326653017492 0.8434326653017492 0.8434326653017492 0.8434326653017492 0.8434326653017492 0.8434326653017492 0.8434326653017492 0.8434326653017492 0.8434326653017492 0.8434326653017492 0.8434326653017492 0.8434326653017492 0.8434326653017492 0.8434326653017492 0.8434326653017492 0.8434326653017492 0.8434326653017492 0.8434326653017492 0.8434326653017492 0.8434326653017492 0.8434326653017492 0.8434326653017492 0.8434326653017492 0.8434326653017492 0.8434326653017492</DataArray>
        <DataArray type="Float64" Name="J_total" format="ascii">0.5998770212723791 0.5998770212723794 0.5841538912178093 0.5829272748577491 0.5829272748577492 0.5841538912178091 0.6110253799037331 0.6421670137836024 0.6421670137836024 0.6260294714287953 0.5844350793413267 0.5879017086233301 0.635693979843539 0.6249960230365986 0.6387742985293644 0.6127914802253489 0.6203693982923553 0.6071453479954781 0.6096284371486002 0.5772294789234504 0.5922552453142608 0.570923290891852 0.6113517876239427 0.5998996920226312 0.6421670137836026 0.6110253799037331 0.5879017086233299 0.5844350793413267 0.6260294714287953 0.6421670137836026 1 1 1 1 1 1 0.969186154789326 1 1 1 0.9562449525293581 0.9360016297096355 0.6132946480057001 0.621464220706816 0.6496397862218718 0.6304394019874804 0.6382306332807969 0.6099154999744119 0.624996023036599 0.6356939798435393 0.6071453479954784 0.6203693982923554 0.6127914802253488 0.6387742985293644 1 0.9691861547893262 0.9360016297096359 0.9562449525293581 1 1 0.9442856112145558 0.9442856112145558 1 1 1 1 0.6045715095371444 0.6432156781393392 0.6400839334283446 0.6803779341349756 0.6346840698566613 0.6080263154778499 0.5772294789234506 0.6096284371486004 0.5998996920226308 0.6113517876239424 0.5709232908918522 0.5922552453142609 0.6214642207068158 0.6132946480056998 0.609915499974412 0.6382306332807971 0.6304394019874805 0.6496397862218718 0.6432156781393393 0.6045715095371444 0.6080263154778498 0.6346840698566613 0.6803779341349756 0.6400839334283445 0.5988106898640223 0.5988106898640224 0.5959171632553284 0.6012819772961218 0.6012819772961219 0.5959171632553284 0.6012819772961221 0.6012819772961219 0.5959171632553285 0.5988106898640226 0.5988106898640227 0.5959171632553288 0.6346840698566613 0.6803779341349756 0.6400839334283444 0.6432156781393394 0.6045715095371446 0.6080263154778497 0.6382306332807969 0.6304394019874804 0.6496397862218718 0.621464220706816 0.6132946480056999 0.6099154999744117 0.6113517876239427 0.570923290891852 0.5922552453142608 0.5772294789234504 0.6096284371486003 0.5998996920226312 0.6803779341349756 0.6346840698566613 0.6080263154778499 0.6045715095371443 0.6432156781393392 0.6400839334283445 1 1 1 0.9442856112145557 0.9442856112145557 1 0.9562449525293581 1 1 1 0.969186154789326 0.9360016297096355 0.6203693982923552 0.6127914802253488 0.6387742985293644 0.6249960230365986 0.6356939798435391 0.6071453479954781 0.6304394019874804 0.6382306332807971 0.6099154999744119 0.6132946480057 0.621464220706816 0.6496397862218718 1 0.9562449525293581 0.9360016297096354 0.969186154789326 1 1 1 1 1 1 1 1 0.5844350793413268 0.6260294714287954 0.6421670137836024 0.6421670137836024 0.6110253799037331 0.5879017086233298 0.5709232908918521 0.6113517876239423 0.599899692022631 0.6096284371486003 0.5772294789234507 0.5922552453142611 0.6127914802253488 0.6203693982923553 0.6071453479954781 0.6356939798435393 0.6249960230365987 0.6387742985293645 0.6260294714287953 0.5844350793413267 0.5879017086233299 0.6110253799037333 0.6421670137836024 0.6421670137836024 0.582927274857749 0.5829272748577489 0.584153891217809 0.599877021272379 0.5998770212723791 0.5841538912178091</DataArray>
        <DataArray type="Float64" Name="J_elastic" format="ascii">0.9997950354539652 0.9997950354539658 0.9735898186963488 0.9715454580962485 0.9715454580962487 0.9735898186963486 1.018375633172889 1.070278356306004 1.070278356306004 1.043382452381326 0.9740584655688778 0.9798361810388836 1.059489966405899 1.041660038394331 1.064623830882274 1.021319133708915 1.033948997153926 1.011908913325797 1.016047395247667 0.9620491315390841 0.987092075523768 0.9515388181530867 1.018919646039905 0.9998328200377187 1.070278356306005 1.018375633172889 0.9798361810388833 0.9740584655688778 1.043382452381326 1.070278356306005 1 1 1 1 1 1 0.969186154789326 1 1 1 0.9562449525293581 0.9360016297096355 1.022157746676167 1.035773701178027 1.082732977036453 1.050732336645801 1.063717722134661 1.016525833290687 1.041660038394332 1.059489966405899 1.011908913325797 1.033948997153926 1.021319133708915 1.064623830882274 1 0.9691861547893262 0.9360016297096359 0.9562449525293581 1 1 0.9442856112145558 0.9442856112145558 1 1 1 1 1.007619182561907 1.072026130232232 1.066806555713908 1.133963223558293 1.057806783094436 1.013377192463083 0.9620491315390843 1.016047395247667 0.9998328200377181 1.018919646039904 0.9515388181530871 0.9870920755237682 1.035773701178026 1.022157746676166 1.016525833290687 1.063717722134662 1.050732336645801 1.082732977036453 1.072026130232232 1.007619182561907 1.013377192463083 1.057806783094436 1.133963223558293 1.066806555713907 0.9980178164400372 0.9980178164400374 0.993195272092214 1.00213662882687 1.00213662882687 0.993195272092214 1.00213662882687 1.00213662882687 0.9931952720922143 0.9980178164400377 0.998017816440038 0.9931952720922148 1.057806783094436 1.133963223558293 1.066806555713907 1.072026130232232 1.007619182561908 1.013377192463083 1.063717722134661 1.050732336645801 1.082732977036453 1.035773701178027 1.022157746676166 1.016525833290686 1.018919646039905 0.9515388181530867 0.987092075523768 0.9620491315390841 1.016047395247667 0.9998328200377187 1.133963223558293 1.057806783094436 1.013377192463083 1.007619182561907 1.072026130232232 1.066806555713907 1 1 1 0.9442856112145557 0.9442856112145557 1 0.9562449525293581 1 1 1 0.969186154789326 0.9360016297096355 1.033948997153925 1.021319133708915 1.064623830882274 1.041660038394331 1.059489966405899 1.011908913325797 1.050732336645801 1.063717722134662 1.016525833290687 1.022157746676167 1.035773701178027 1.082732977036453 1 0.9562449525293581 0.9360016297096354 0.969186154789326 1 1 1 1 1 1 1 1 0.974058465568878 1.043382452381326 1.070278356306004 1.070278356306004 1.018375633172889 0.979836181038883 0.9515388181530869 1.018919646039904 0.9998328200377185 1.016047395247667 0.9620491315390844 0.9870920755237685 1.021319133708915 1.033948997153926 1.011908913325797 1.059489966405899 1.041660038394331 1.064623830882274 1.043382452381326 0.9740584655688778 0.9798361810388833 1.018375633172889 1.070278356306004 1.070278356306004 0.9715454580962484 0.9715454580962481 0.9735898186963484 0.999795035453965 0.9997950354539652 0.9735898186963486</DataArray>
      </CellData>
      <Points>
        <DataArray type="Float64" NumberOfComponents="3" format="ascii">-0.8842498143480454 -0.8842498143480455 -0.5637368070722762 -0.4307924781959336 -0.8210835068918012 -0.5530729160681581 0.03881648263608582 -0.8256626327215626 -0.5404551915958767 0.4609083754812424 -0.869058166184574 -0.5386338151988973 0.8814922440497599 -0.8699574079814438 -0.5111032665375664 -0.8210835068918013 -0.4307924781959336 -0.5530729160681581 -0.5 -0.5 -0.6 0 -0.5 -0.6 0.5227926676366428 -0.4618004097580202 -0.5466428790251433 0.9327286604065679 -0.4512046101926677 -0.5045529568361764 -0.8256626327215626 0.03881648263608584 -0.5404551915958766 -0.5 0 -0.6 0 0 -0.6 0.5 0 -0.6 0.8942636501038971 -0.009796499654314103 -0.4936825250579828 -0.869058166184574 0.4609083754812425 -0.5386338151988973 -0.4618004097580202 0.5227926676366429 -0.5466428790251434 0 0.5 -0.6 0.4916090521000128 0.4916090521000128 -0.5766405042087182 0.8838011226247263 0.4481744407478737 -0.4894054829328873 -0.8699574079814438 0.8814922440497598 -0.5111032665375664 -0.4512046101926676 0.9327286604065679 -0.5045529568361766 -0.009796499654314087 0.8942636501038971 -0.4936825250579828 0.4481744407478738 0.8838011226247263 -0.4894054829328874 0.90498770704772 0.9049877070477199 -0.4889754053277879 -0.8811587063122299 -0.8811587063122299 -0.004761811843759556 -0.4297605575253339 -0.8401889670674878 -0.001060355310328105 0.02083319449514346 -0.8527168603396338 -0.008973689522515477 0.4485120120077042 -0.8939705862470249 -0.01200784258248891 0.8663219828822073 -0.8663219828822072 -8.763513236838047e-18 -0.8401889670674878 -0.429760557525334 -0.001060355310328094 -0.5 -0.5 0 0 -0.5 0 0.4890612381323395 -0.4890612381323395 2.112330029443953e-17 0.8939705862470249 -0.4485120120077042 0.0120078425824889 -0.8527168603396338 0.02083319449514349 -0.00897368952251547 -0.5 0 0 0 0 0 0.5 0 0 0.8527168603396338 -0.02083319449514347 0.008973689522515486 -0.893970586247025 0.4485120120077042 -0.01200784258248889 -0.4890612381323395 0.4890612381323395 -1.692207784743235e-18 0 0.5 0 0.5 0.5 0 0.8401889670674878 0.429760557525334 0.001060355310328093 -0.8663219828822072 0.8663219828822072 -1.136002397097859e-17 -0.4485120120077042 0.8939705862470249 0.0120078425824889 -0.02083319449514346 0.8527168603396338 0.008973689522515474 0.429760557525334 0.8401889670674878 0.001060355310328115 0.8811587063122298 0.8811587063122298 0.004761811843759593 -0.90498770704772 -0.90498770704772 0.4889754053277879 -0.4481744407478737 -0.8838011226247264 0.4894054829328873 0.009796499654314133 -0.8942636501038971 0.4936825250579828 0.4512046101926677 -0.9327286604065678 0.5045529568361765 0.8699574079814438 -0.8814922440497599 0.5111032665375663 -0.8838011226247263 -0.4481744407478737 0.4894054829328873 -0.4916090521000128 -0.4916090521000128 0.576640504208718 0 -0.5 0.6 0.4618004097580202 -0.5227926676366428 0.5466428790251433 0.869058166184574 -0.4609083754812425 0.5386338151988973 -0.8942636501038971 0.009796499654314113 0.4936825250579828 -0.5 0 0.6 0 0 0.6 0.5 0 0.6 0.8256626327215626 -0.03881648263608582 0.5404551915958766 -0.9327286604065679 0.4512046101926676 0.5045529568361765 -0.5227926676366428 0.4618004097580202 0.5466428790251433 0 0.5 0.6 0.5 0.5 0.6 0.8210835068918012 0.4307924781959336 0.5530729160681581 -0.8814922440497598 0.8699574079814438 0.5111032665375664 -0.4609083754812424 0.8690581661845741 0.5386338151988973 -0.03881648263608579 0.8256626327215627 0.5404551915958766 0.4307924781959337 0.8210835068918012 0.553072916068158 0.8842498143480454 0.8842498143480454 0.5637368070722762</DataArray>
      </Points>
      <Cells>
        <DataArray type="Int64" Name="connectivity" format="ascii">0 1 6 31 0 6 5 31 0 5 30 31 0 30 25 31 0 25 26 31 0 26 1 31 1 2 7 32 1 7 6 32 1 6 31 32 1 31 26 32 1 26 27 32 1 27 2 32 2 3 8 33 2 8 7 33 2 7 32 33 2 32 27 33 2 27 28 33 2 28 3 33 3 4 9 34 3 9 8 34 3 8 33 34 3 33 28 34 3 28 29 34 3 29 4 34 5 6 11 36 5 11 10 36 5 10 35 36 5 35 30 36 5 30 31 36 5 31 6 36 6 7 12 37 6 12 11 37 6 11 36 37 6 36 31 37 6 31 32 37 6 32 7 37 7 8 13 38 7 13 12 38 7 12 37 38 7 37 32 38 7 32 33 38 7 33 8 38 8 9 14 39 8 14 13 39 8 13 38 39 8 38 33 39 8 33 34 39 8 34 9 39 10 11 16 41 10 16 15 41 10 15 40 41 10 40 35 41 10 35 36 41 10 36 11 41 11 12 17 42 11 17 16 42 11 16 41 42 11 41 36 42 11 36 37 42 11 37 12 42 12 13 18 43 12 18 17 43 12 17 42 43 12 42 37 43 12 37 38 43 12 38 13 43 13 14 19 44 13 19 18 44 13 18 43 44 13 43 38 44 13 38 39 44 13 39 14 44 15 16 21 46 15 21 20 46 15 20 45 46 15 45 40 46 15 40 41 46 15 41 16 46 16 17 22 47 16 22 21 47 16 21 46 47 16 46 41 47 16 41 42 47 16 42 17 47 17 18 23 48 17 23 22 48 17 22 47 48 17 47 42 48 17 42 43 48 17 43 18 48 18 19 24 49 18 24 23 49 18 23 48 49 18 48 43 49 18 43 44 49 18 44 19 49 25 26 31 56 25 31 30 56 25 30 55 56 25 55 50 56 25 50 51 56 25 51 26 56 26 27 32 57 26 32 31 57 26 31 56 57 26 56 51 57 26 51 52 57 26 52 27 57 27 28 33 58 27 33 32 58 27 32 57 58 27 57 52 58 27 52 53 58 27 53 28 58 28 29 34 59 28 34 33 59 28 33 58 59 28 58 53 59 28 53 54 59 28 54 29 59 30 31 36 61 30 36 35 61 30 35 60 61 30 60 55 61 30 55 56 61 30 56 31 61 31 32 37 62 31 37 36 62 31 36 61 62 31 61 56 62 31 56 57 62 31 57 32 62 32 33 38 63 32 38 37 63 32 37 62 63 32 62 57 63 32 57 58 63 32 58 33 63 33 34 39 64 33 39 38 64 33 38 63 64 33 63 58 64 33 58 59 64 33 59 34 64 35 36 41 66 35 41 40 66 35 40 65 66 35 65 60 66 35 60 61 66 35 61 36 66 36 37 42 67 36 42 41 67 36 41 66 67 36 66 61 67 36 61 62 67 36 62 37 67 37 38 43 68 37 43 42 68 37 42 67 68 37 67 62 68 37 62 63 68 37 63 38 68 38 39 44 69 38 44 43 69 38 43 68 69 38 68 63 69 38 63 64 69 38 64 39 69 40 41 46 71 40 46 45 71 40 45 70 71 40 70 65 71 40 65 66 71 40 66 41 71 41 42 47 72 41 47 46 72 41 46 71 72 41 71 66 72 41 66 67 72 41 67 42 72 42 43 48 73 42 48 47 73 42 47 72 73 42 72 67 73 42 67 68 73 42 68 43 73 43 44 49 74 43 49 48 74 43 48 73 74 43 73 68 74 43 68 69 74 43 69 44 74</DataArray>
        <DataArray type="Int64" Name="offsets" format="ascii">4 8 12 16 20 24 28 32 36 40 44 48 52 56 60 64 68 72 76 80 84 88 92 96 100 104 108 112 116 120 124 128 132 136 140 144 148 152 156 160 164 168 172 176 180 184 188 192 196 200 204 208 212 216 220 224 228 232 236 240 244 248 252 256 260 264 268 272 276 280 284 288 292 296 300 304 308 312 316 320 324 328 332 336 340 344 348 352 356 360 364 368 372 376 380 384 388 392 396 400 404 408 412 416 420 424 428 432 436 440 444 448 452 456 460 464 468 472 476 480 484 488 492 496 500 504 508 512 516 520 524 528 532 536 540 544 548 552 556 560 564 568 572 576 580 584 588 592 596 600 604 608 612 616 620 624 628 632 636 640 644 648 652 656 660 664 668 672 676 680 684 688 692 696 700 704 708 712 716 720 724 728 732 736 740 744 748 752 756 760 764 768</DataArray>
        <DataArray type="UInt8" Name="types" format="ascii">10 10 10 10 10 10 10 10 10 10 10 10 10 10 10 10 10 10 10 10 10 10 10 10 10 10 10 10 10 10 10 10 10 10 10 10 10 10 10 10 10 10 10 10 10 10 10 10 10 10 10 10 10 10 10 10 10 10 10 10 10 10 10 10 10 10 10 10 10 10 10 10 10 10 10 10 10 10 10 10 10 10 10 10 10 10 10 10 10 10 10 10 10 10 10 10 10 10 10 10 10 10 10 10 10 10 10 10 10 10 10 10 10 10 10 10 10 10 10 10 10 10 10 10 10 10 10 10 10 10 10 10 10 10 10 10 10 10 10 10 10 10 10 10 10 10 10 10 10 10 10 10 10 10 10 10 10 10 10 10 10 10 10 10 10 10 10 10 10 10 10 10 10 10 10 10 10 10 10 10 10 10 10 10 10 10 10 10 10 10 10 10</DataArray>
      </Cells>
    </Piece>
  </UnstructuredGrid>
</VTKFile>