<?xml version="1.0"?>
<VTKFile type="UnstructuredGrid" version="0.1" byte_order="LittleEndian">
  <UnstructuredGrid>
    <Piece NumberOfPoints="75" NumberOfCells="192">
      <PointData>
        <DataArray type="Float64" Name="displacement" NumberOfComponents="3" format="ascii">-0.1088531488182071 -0.1088531488182072 -0.01903990646540304 -0.07261412936198722 -0.1889559142436985 -0.03324020059044967 -0.03665764637737236 -0.1885879755385912 -0.03838572266552898 0.02828768659150696 -0.1275172383439319 -0.05038158717140628 0.09953936143145721 -0.1290570497576088 -0.08465522498619203 -0.1889559142436985 -0.07261412936198729 -0.03324020059044964 0 0 0 0 0 0 -0.02380222935500867 -0.03502707634348392 -0.04600859925988481 0.05001123634122893 -0.05751051953854337 -0.09620866580104187 -0.1885879755385911 -0.03665764637737232 -0.03838572266552902 0 0 0 0 0 0 0 0 0 0.08356707896241279 0.002263940149193856 -0.1088485497785716 -0.1275172383439318 0.02828768659150689 -0.05038158717140623 -0.03502707634348401 -0.02380222935500863 -0.04600859925988478 0 0 0 0.00747093573028677 0.007470935730286794 -0.01914543919072273 0.09489022076386751 0.04002519303286901 -0.1122976240461922 -0.1290570497576088 0.09953936143145732 -0.08465522498619214 -0.05751051953854341 0.05001123634122889 -0.0962086658010418 0.002263940149193802 0.08356707896241283 -0.1088485497785716 0.04002519303286898 0.09489022076386754 -0.1122976240461921 0.0821201228735924 0.08212012287359262 -0.1136677231003298 -0.1087876554256482 -0.1087876554256482 0.01271996034410683 -0.06495899102891048 -0.1623549710537104 0.01148036381119468 -0.01291993423268902 -0.1500458431998492 0.02235456661757248 0.05278287499299552 -0.09740122181457594 0.01844695620234596 0.1277595831728884 -0.1277595831728884 -4.560963573537555e-17 -0.1623549710537105 -0.06495899102891055 0.01148036381119466 0 0 0 0 0 0 0.008505619800106752 -0.008505619800106749 -1.399403740553462e-17 0.09740122181457596 -0.05278287499299561 -0.01844695620234599 -0.1500458431998492 -0.01291993423268906 0.02235456661757249 0 0 0 0 0 0 0 0 0 0.1500458431998491 0.01291993423268907 -0.02235456661757251 -0.09740122181457597 0.05278287499299557 0.01844695620234598 -0.008505619800106737 0.008505619800106763 1.376698012327162e-18 0 0 0 0 0 0 0.1623549710537104 0.06495899102891055 -0.01148036381119467 -0.1277595831728883 0.1277595831728884 1.199273292937989e-17 -0.05278287499299558 0.09740122181457589 -0.01844695620234598 0.01291993423268906 0.1500458431998493 -0.0223545666175725 0.06495899102891038 0.1623549710537103 -0.0114803638111947 0.1087876554256481 0.1087876554256482 -0.01271996034410681 -0.08212012287359256 -0.08212012287359235 0.1136677231003298 -0.04002519303286887 -0.09489022076386749 0.1122976240461922 -0.002263940149193816 -0.08356707896241272 0.1088485497785716 0.05751051953854349 -0.05001123634122907 0.09620866580104181 0.1290570497576086 -0.09953936143145722 0.08465522498619207 -0.09489022076386755 -0.04002519303286893 0.1122976240461922 -0.007470935730286734 -0.007470935730286819 0.01914543919072281 0 0 0 0.03502707634348393 0.02380222935500865 0.04600859925988478 0.1275172383439319 -0.02828768659150695 0.05038158717140624 -0.08356707896241281 -0.002263940149193833 0.1088485497785717 0 0 0 0 0 0 0 0 0 0.1885879755385912 0.03665764637737234 0.03838572266552898 -0.05001123634122898 0.05751051953854341 0.09620866580104179 0.02380222935500865 0.03502707634348402 0.04600859925988484 0 0 0 0 0 0 0.1889559142436985 0.0726141293619873 0.03324020059044967 -0.09953936143145715 0.1290570497576086 0.084655224986192 -0.02828768659150692 0.1275172383439319 0.05038158717140633 0.03665764637737235 0.1885879755385912 0.03838572266552902 0.0726141293619872 0.1889559142436985 0.03324020059044967 0.1088531488182071 0.1088531488182072 0.01903990646540301</DataArray>
        <DataArray type="Float64" Name="displacement_magnitude" NumberOfComponents="1" format="ascii">0.1551145836260692 0.2051391241230319 0.1959149592558661 0.1399969414432775 0.1836581435269968 0.205139124123032 0 0 0.06253185912234946 0.1227383028772518 0.195914959255866 0 0 0 0.1372464531425401 0.1399969414432773 0.06253185912234949 0 0.02186727242199661 0.1523710157489076 0.1836581435269969 0.1227383028772518 0.1372464531425401 0.1523710157489076 0.1625047089667284 0.15437391404371 0.1752444175846483 0.1522511294236934 0.1123090383568023 0.1806793352462322 0.1752444175846484 0 0 0.0120287628777001 0.1123090383568024 0.1522511294236933 0 0 0 0.1522511294236933 0.1123090383568023 0.0120287628777001 0 0 0.1752444175846484 0.1806793352462321 0.1123090383568023 0.1522511294236935 0.1752444175846482 0.15437391404371 0.1625047089667284 0.1523710157489076 0.1372464531425401 0.1227383028772519 0.1836581435269968 0.1523710157489077 0.02186727242199667 0 0.06253185912234945 0.1399969414432775 0.1372464531425401 0 0 0 0.195914959255866 0.1227383028772518 0.06253185912234954 0 0 0.2051391241230319 0.1836581435269967 0.1399969414432775 0.1959149592558661 0.2051391241230318 0.1551145836260692</DataArray>
      </PointData>
      <CellData>
        <DataArray type="Int64" Name="region" format="ascii">3 3 3 3 3 3 3 3 3 3 3 3 3 3 3 3 3 3 3 3 3 3 3 3 3 3 3 3 3 3 1 1 2 2 2 2 2 1 1 1 2 2 3 3 3 3 3 3 3 3 3 3 3 3 1 2 2 2 1 1 2 2 2 1 1 2 3 3 3 3 3 3 3 3 3 3 3 3 3 3 3 3 3 3 3 3 3 3 3 3 3 3 3 3 3 3 3 3 3 3 3 3 3 3 3 3 3 3 3 3 3 3 3 3 3 3 3 3 3 3 3 3 3 3 3 3 1 1 2 2 2 2 2 1 1 1 2 2 3 3 3 3 3 3 3 3 3 3 3 3 1 2 2 2 1 1 2 2 2 1 1 2 3 3 3 3 3 3 3 3 3 3 3 3 3 3 3 3 3 3 3 3 3 3 3 3 3 3 3 3 3 3</DataArray>
        <DataArray type="Float64" Name="growth_lambda" format="ascii">1.144714242553332 1.144714242553332 1.144714242553332 1.144714242553332 1.144714242553332 1.144714242553332 1.144714242553332 1.144714242553332 1.144714242553332 1.144714242553332 1.144714242553332 1.144714242553332 1.144714242553332 1.144714242553332 1.144714242553332 1.144714242553332 1.144714242553332 1.144714242553332 1.144714242553332 1.144714242553332 1.144714242553332 1.144714242553332 1.144714242553332 1.144714242553332 1.144714242553332 1.144714242553332 1.144714242553332 1.144714242553332 1.144714242553332 1.144714242553332 1 1 1 1 1 1 1 1 1 1 1 1 1.144714242553332 1.144714242553332 1.144714242553332 1.144714242553332 1.144714242553332 1.144714242553332 1.144714242553332 1.144714242553332 1.144714242553332 1.144714242553332 1.144714242553332 1.144714242553332 1 1 1 1 1 1 1 1 1 1 1 1 1.144714242553332 1.144714242553332 1.144714242553332 1.144714242553332 1.144714242553332 1.144714242553332 1.144714242553332 1.144714242553332 1.144714242553332 1.144714242553332 1.144714242553332 1.144714242553332 1.144714242553332 1.144714242553332 1.144714242553332 1.144714242553332 1.144714242553332 1.144714242553332 1.144714242553332 1.144714242553332 1.144714242553332 1.144714242553332 1.144714242553332 1.144714242553332 1.144714242553332 1.144714242553332 1.144714242553332 1.144714242553332 1.144714242553332 1.144714242553332 1.144714242553332 1.144714242553332 1.144714242553332 1.144714242553332 1.144714242553332 1.144714242553332 1.144714242553332 1.144714242553332 1.144714242553332 1.144714242553332 1.144714242553332 1.144714242553332 1.144714242553332 1.144714242553332 1.144714242553332 1.144714242553332 1.144714242553332 1.144714242553332 1.144714242553332 1.144714242553332 1.144714242553332 1.144714242553332 1.144714242553332 1.144714242553332 1.144714242553332 1.144714242553332 1.144714242553332 1.144714242553332 1.144714242553332 1.144714242553332 1 1 1 1 1 1 1 1 1 1 1 1 1.144714242553332 1.144714242553332 1.144714242553332 1.144714242553332 1.144714242553332 1.144714242553332 1.144714242553332 1.144714242553332 1.144714242553332 1.144714242553332 1.144714242553332 1.144714242553332 1 1 1 1 1 1 1 1 1 1 1 1 1.144714242553332 1.144714242553332 1.144714242553332 1.144714242553332 1.144714242553332 1.144714242553332 1.144714242553332 1.144714242553332 1.144714242553332 1.144714242553332 1.144714242553332 1.144714242553332 1.144714242553332 1.144714242553332 1.144714242553332 1.144714242553332 1.144714242553332 1.144714242553332 1.144714242553332 1.144714242553332 1.144714242553332 1.144714242553332 1.144714242553332 1.144714242553332 1.144714242553332 1.144714242553332 1.144714242553332 1.144714242553332 1.144714242553332 1.144714242553332</DataArray>
        <DataArray type="Float64" Name="J_total" format="ascii">1.501046545893856 1.501046545893856 1.550434830005034 1.531756910964922 1.531756910964922 1.550434830005034 1.476158807312876 1.377911828487397 1.377911828487397 1.42446419759175 1.543544535462517 1.538231583823561 1.456528712336374 1.420726046786296 1.401850605164019 1.459494992458027 1.480663714191512 1.498659755619453 1.48135872457617 1.540241532897948 1.494773891911181 1.541833762856897 1.474046206231606 1.502795584937578 1.377911828487397 1.476158807312876 1.538231583823561 1.543544535462518 1.42446419759175 1.377911828487397 1 1 1 1 1 1 1.022449693976951 1 1 1 1.034022479200427 1.046695138512769 1.486468846946806 1.45245176497145 1.389938414954368 1.426551349761217 1.447300469936351 1.481047231529493 1.420726046786296 1.456528712336374 1.498659755619453 1.480663714191512 1.459494992458027 1.401850605164019 1 1.022449693976951 1.046695138512769 1.034022479200427 1 1 1.046850936778445 1.046850936778445 1 1 1 1 1.492535247474201 1.414347584538957 1.384546729199235 1.324709942107421 1.434766644128062 1.500336752734222 1.540241532897948 1.48135872457617 1.502795584937578 1.474046206231606 1.541833762856897 1.494773891911181 1.45245176497145 1.486468846946806 1.481047231529494 1.447300469936351 1.426551349761218 1.389938414954369 1.414347584538957 1.4925352474742 1.500336752734221 1.434766644128062 1.32470994210742 1.384546729199235 1.499318318437539 1.499318318437538 1.524396946923818 1.500790408862448 1.500790408862448 1.524396946923818 1.500790408862448 1.500790408862448 1.524396946923818 1.499318318437539 1.49931831843754 1.524396946923819 1.434766644128062 1.324709942107421 1.384546729199235 1.414347584538957 1.492535247474201 1.500336752734222 1.44730046993635 1.426551349761218 1.389938414954368 1.45245176497145 1.486468846946807 1.481047231529494 1.474046206231606 1.541833762856897 1.494773891911181 1.540241532897948 1.48135872457617 1.502795584937578 1.324709942107421 1.434766644128062 1.500336752734222 1.492535247474201 1.414347584538957 1.384546729199235 1 1 1 1.046850936778445 1.046850936778445 1 1.034022479200427 1 1 1 1.022449693976951 1.046695138512769 1.480663714191512 1.459494992458027 1.401850605164019 1.420726046786296 1.456528712336375 1.498659755619453 1.426551349761218 1.447300469936351 1.481047231529494 1.486468846946806 1.45245176497145 1.389938414954369 1 1.034022479200427 1.046695138512769 1.022449693976951 1 1 1 1 1 1 1 1 1.543544535462517 1.42446419759175 1.377911828487397 1.377911828487397 1.476158807312876 1.53823158382356 1.541833762856897 1.474046206231606 1.502795584937578 1.48135872457617 1.540241532897949 1.494773891911181 1.459494992458027 1.480663714191512 1.498659755619453 1.456528712336375 1.420726046786296 1.401850605164019 1.42446419759175 1.543544535462517 1.538231583823561 1.476158807312876 1.377911828487397 1.377911828487397 1.531756910964922 1.531756910964922 1.550434830005033 1.501046545893856 1.501046545893856 1.550434830005034</DataArray>
        <DataArray type="Float64" Name="J_elastic" format="ascii">1.000697697262571 1.000697697262571 1.033623220003356 1.021171273976614 1.021171273976615 1.033623220003356 0.9841058715419174 0.9186078856582647 0.9186078856582647 0.9496427983945001 1.029029690308345 1.02548772254904 0.971019141557583 0.9471506978575309 0.9345670701093461 0.9729966616386849 0.9871091427943411 0.9991065037463017 0.9875724830507799 1.026827688598632 0.9965159279407874 1.027889175237931 0.9826974708210708 1.001863723291719 0.9186078856582647 0.9841058715419174 1.02548772254904 1.029029690308345 0.9496427983945001 0.9186078856582647 1 1 1 1 1 1 1.022449693976951 1 1 1 1.034022479200427 1.046695138512769 0.9909792312978705 0.9683011766476332 0.9266256099695784 0.9510342331741448 0.9648669799575672 0.9873648210196623 0.9471506978575306 0.9710191415575827 0.9991065037463017 0.9871091427943415 0.9729966616386849 0.9345670701093459 1 1.022449693976951 1.046695138512769 1.034022479200427 1 1 1.046850936778445 1.046850936778445 1 1 1 1 0.9950234983161338 0.9428983896926378 0.9230311527994902 0.8831399614049472 0.9565110960853745 1.000224501822814 1.026827688598632 0.9875724830507799 1.001863723291719 0.9826974708210706 1.027889175237931 0.996515927940787 0.9683011766476333 0.9909792312978705 0.9873648210196624 0.9648669799575672 0.9510342331741451 0.926625609969579 0.9428983896926378 0.9950234983161336 1.000224501822814 0.9565110960853747 0.883139961404947 0.9230311527994899 0.9995455456250261 0.9995455456250256 1.016264631282546 1.000526939241632 1.000526939241632 1.016264631282545 1.000526939241632 1.000526939241632 1.016264631282545 0.9995455456250258 0.9995455456250264 1.016264631282546 0.9565110960853748 0.8831399614049472 0.9230311527994903 0.9428983896926381 0.9950234983161338 1.000224501822814 0.9648669799575669 0.9510342331741451 0.9266256099695788 0.9683011766476332 0.990979231297871 0.9873648210196624 0.9826974708210708 1.027889175237931 0.9965159279407872 1.026827688598632 0.9875724830507798 1.001863723291719 0.8831399614049472 0.956511096085375 1.000224501822814 0.9950234983161338 0.9428983896926381 0.9230311527994902 1 1 1 1.046850936778445 1.046850936778445 1 1.034022479200427 1 1 1 1.022449693976951 1.046695138512769 0.9871091427943415 0.9729966616386846 0.9345670701093459 0.9471506978575306 0.9710191415575831 0.9991065037463017 0.9510342331741451 0.9648669799575672 0.9873648210196627 0.9909792312978709 0.9683011766476336 0.926625609969579 1 1.034022479200427 1.046695138512769 1.022449693976951 1 1 1 1 1 1 1 1 1.029029690308345 0.9496427983945001 0.9186078856582647 0.9186078856582647 0.9841058715419174 1.02548772254904 1.027889175237931 0.9826974708210706 1.001863723291719 0.9875724830507799 1.026827688598633 0.9965159279407875 0.9729966616386849 0.9871091427943415 0.9991065037463018 0.9710191415575831 0.9471506978575309 0.9345670701093461 0.9496427983944997 1.029029690308345 1.02548772254904 0.9841058715419174 0.9186078856582647 0.9186078856582647 1.021171273976614 1.021171273976614 1.033623220003355 1.00069769726257 1.000697697262571 1.033623220003356</DataArray>
      </CellData>
      <Points>
        <DataArray type="Float64" NumberOfComponents="3" format="ascii">-1.108853148818207 -1.108853148818207 -0.619039906465403 -0.5726141293619872 -1.188955914243699 -0.6332402005904496 -0.03665764637737236 -1.188587975538591 -0.638385722665529 0.5282876865915069 -1.127517238343932 -0.6503815871714063 1.099539361431457 -1.129057049757609 -0.684655224986192 -1.188955914243699 -0.5726141293619873 -0.6332402005904496 -0.5 -0.5 -0.6 0 -0.5 -0.6 0.4761977706449914 -0.5350270763434839 -0.6460085992598847 1.050011236341229 -0.5575105195385434 -0.6962086658010418 -1.188587975538591 -0.03665764637737232 -0.638385722665529 -0.5 0 -0.6 0 0 -0.6 0.5 0 -0.6 1.083567078962413 0.002263940149193856 -0.7088485497785716 -1.127517238343932 0.5282876865915069 -0.6503815871714063 -0.535027076343484 0.4761977706449914 -0.6460085992598847 0 0.5 -0.6 0.5074709357302868 0.5074709357302868 -0.6191454391907227 1.094890220763868 0.540025193032869 -0.7122976240461921 -1.129057049757609 1.099539361431457 -0.6846552249861921 -0.5575105195385434 1.050011236341229 -0.6962086658010418 0.002263940149193802 1.083567078962413 -0.7088485497785716 0.540025193032869 1.094890220763868 -0.7122976240461921 1.082120122873592 1.082120122873593 -0.7136677231003298 -1.108787655425648 -1.108787655425648 0.01271996034410683 -0.5649589910289105 -1.16235497105371 0.01148036381119468 -0.01291993423268902 -1.150045843199849 0.02235456661757248 0.5527828749929955 -1.097401221814576 0.01844695620234596 1.127759583172888 -1.127759583172888 -4.560963573537555e-17 -1.16235497105371 -0.5649589910289106 0.01148036381119466 -0.5 -0.5 0 0 -0.5 0 0.5085056198001068 -0.5085056198001068 -1.399403740553462e-17 1.097401221814576 -0.5527828749929956 -0.01844695620234599 -1.150045843199849 -0.01291993423268906 0.02235456661757249 -0.5 0 0 0 0 0 0.5 0 0 1.150045843199849 0.01291993423268907 -0.02235456661757251 -1.097401221814576 0.5527828749929956 0.01844695620234598 -0.5085056198001068 0.5085056198001068 1.376698012327162e-18 0 0.5 0 0.5 0.5 0 1.16235497105371 0.5649589910289106 -0.01148036381119467 -1.127759583172888 1.127759583172888 1.199273292937989e-17 -0.5527828749929956 1.097401221814576 -0.01844695620234598 0.01291993423268906 1.150045843199849 -0.0223545666175725 0.5649589910289103 1.16235497105371 -0.0114803638111947 1.108787655425648 1.108787655425648 -0.01271996034410681 -1.082120122873593 -1.082120122873592 0.7136677231003298 -0.5400251930328689 -1.094890220763868 0.7122976240461922 -0.002263940149193816 -1.083567078962413 0.7088485497785716 0.5575105195385435 -1.050011236341229 0.6962086658010418 1.129057049757609 -1.099539361431457 0.684655224986192 -1.094890220763868 -0.5400251930328689 0.7122976240461922 -0.5074709357302868 -0.5074709357302868 0.6191454391907227 0 -0.5 0.6 0.5350270763434839 -0.4761977706449914 0.6460085992598847 1.127517238343932 -0.5282876865915069 0.6503815871714063 -1.083567078962413 -0.002263940149193833 0.7088485497785717 -0.5 0 0.6 0 0 0.6 0.5 0 0.6 1.188587975538591 0.03665764637737234 0.638385722665529 -1.050011236341229 0.5575105195385434 0.6962086658010418 -0.4761977706449914 0.535027076343484 0.6460085992598849 0 0.5 0.6 0.5 0.5 0.6 1.188955914243699 0.5726141293619873 0.6332402005904496 -1.099539361431457 1.129057049757609 0.684655224986192 -0.5282876865915069 1.127517238343932 0.6503815871714063 0.03665764637737235 1.188587975538591 0.638385722665529 0.5726141293619872 1.188955914243699 0.6332402005904496 1.108853148818207 1.108853148818207 0.619039906465403</DataArray>
      </Points>
      <Cells>
        <DataArray type="Int64" Name="connectivity" format="ascii">0 1 6 31 0 6 5 31 0 5 30 31 0 30 25 31 0 25 26 31 0 26 1 31 1 2 7 32 1 7 6 32 1 6 31 32 1 31 26 32 1 26 27 32 1 27 2 32 2 3 8 33 2 8 7 33 2 7 32 33 2 32 27 33 2 27 28 33 2 28 3 33 3 4 9 34 3 9 8 34 3 8 33 34 3 33 28 34 3 28 29 34 3 29 4 34 5 6 11 36 5 11 10 36 5 10 35 36 5 35 30 36 5 30 31 36 5 31 6 36 6 7 12 37 6 12 11 37 6 11 36 37 6 36 31 37 6 31 32 37 6 32 7 37 7 8 13 38 7 13 12 38 7 12 37 38 7 37 32 38 7 32 33 38 7 33 8 38 8 9 14 39 8 14 13 39 8 13 38 39 8 38 33 39 8 33 34 39 8 34 9 39 10 11 16 41 10 16 15 41 10 15 40 41 10 40 35 41 10 35 36 41 10 36 11 41 11 12 17 42 11 17 16 42 11 16 41 42 11 41 36 42 11 36 37 42 11 37 12 42 12 13 18 43 12 18 17 43 12 17 42 43 12 42 37 43 12 37 38 43 12 38 13 43 13 14 19 44 13 19 18 44 13 18 43 44 13 43 38 44 13 38 39 44 13 39 14 44 15 16 21 46 15 21 20 46 15 20 45 46 15 45 40 46 15 40 41 46 15 41 16 46 16 17 22 47 16 22 21 47 16 21 46 47 16 46 41 47 16 41 42 47 16 42 17 47 17 18 23 48 17 23 22 48 17 22 47 48 17 47 42 48 17 42 43 48 17 43 18 48 18 19 24 49 18 24 23 49 18 23 48 49 18 48 43 49 18 43 44 49 18 44 19 49 25 26 31 56 25 31 30 56 25 30 55 56 25 55 50 56 25 50 51 56 25 51 26 56 26 27 32 57 26 32 31 57 26 31 56 57 26 56 51 57 26 51 52 57 26 52 27 57 27 28 33 58 27 33 32 58 27 32 57 58 27 57 52 58 27 52 53 58 27 53 28 58 28 29 34 59 28 34 33 59 28 33 58 59 28 58 53 59 28 53 54 59 28 54 29 59 30 31 36 61 30 36 35 61 30 35 60 61 30 60 55 61 30 55 56 61 30 56 31 61 31 32 37 62 31 37 36 62 31 36 61 62 31 61 56 62 31 56 57 62 31 57 32 62 32 33 38 63 32 38 37 63 32 37 62 63 32 62 57 63 32 57 58 63 32 58 33 63 33 34 39 64 33 39 38 64 33 38 63 64 33 63 58 64 33 58 59 64 33 59 34 64 35 36 41 66 35 41 40 66 35 40 65 66 35 65 60 66 35 60 61 66 35 61 36 66 36 37 42 67 36 42 41 67 36 41 66 67 36 66 61 67 36 61 62 67 36 62 37 67 37 38 43 68 37 43 42 68 37 42 67 68 37 67 62 68 37 62 63 68 37 63 38 68 38 39 44 69 38 44 43 69 38 43 68 69 38 68 63 69 38 63 64 69 38 64 39 69 40 41 46 71 40 46 45 71 40 45 70 71 40 70 65 71 40 65 66 71 40 66 41 71 41 42 47 72 41 47 46 72 41 46 71 72 41 71 66 72 41 66 67 72 41 67 42 72 42 43 48 73 42 48 47 73 42 47 72 73 42 72 67 73 42 67 68 73 42 68 43 73 43 44 49 74 43 49 48 74 43 48 73 74 43 73 68 74 43 68 69 74 43 69 44 74</DataArray>
        <DataArray type="Int64" Name="offsets" format="ascii">4 8 12 16 20 24 28 32 36 40 44 48 52 56 60 64 68 72 76 80 84 88 92 96 100 104 108 112 116 120 124 128 132 136 140 144 148 152 156 160 164 168 172 176 180 184 188 192 196 200 204 208 212 216 220 224 228 232 236 240 244 248 252 256 260 264 268 272 276 280 284 288 292 296 300 304 308 312 316 320 324 328 332 336 340 344 348 352 356 360 364 368 372 376 380 384 388 392 396 400 404 408 412 416 420 424 428 432 436 440 444 448 452 456 460 464 468 472 476 480 484 488 492 496 500 504 508 512 516 520 524 528 532 536 540 544 548 552 556 560 564 568 572 576 580 584 588 592 596 600 604 608 612 616 620 624 628 632 636 640 644 648 652 656 660 664 668 672 676 680 684 688 692 696 700 704 708 712 716 720 724 728 732 736 740 744 748 752 756 760 764 768</DataArray>
        <DataArray type="UInt8" Name="types" format="ascii">10 10 10 10 10 10 10 10 10 10 10 10 10 10 10 10 10 10 10 10 10 10 10 10 10 10 10 10 10 10 10 10 10 10 10 10 10 10 10 10 10 10 10 10 10 10 10 10 10 10 10 10 10 10 10 10 10 10 10 10 10 10 10 10 10 10 10 10 10 10 10 10 10 10 10 10 10 10 10 10 10 10 10 10 10 10 10 10 10 10 10 10 10 10 10 10 10 10 10 10 10 10 10 10 10 10 10 10 10 10 10 10 10 10 10 10 10 10 10 10 10 10 10 10 10 10 10 10 10 10 10 10 10 10 10 10 10 10 10 10 10 10 10 10 10 10 10 10 10 10 10 10 10 10 10 10 10 10 10 10 10 10 10 10 10 10 10 10 10 10 10 10 10 10 10 10 10 10 10 10 10 10 10 10 10 10 10 10 10 10 10 10</DataArray>
      </Cells>
    </Piece>
  </UnstructuredGrid>
</VTKFile>